MODEL 1
REMARK VINA RESULT:    -7.140      0.000      0.000
REMARK INTER + INTRA:         -12.892
REMARK INTER:                 -11.105
REMARK INTRA:                  -1.787
REMARK UNBOUND:                -1.787
REMARK SMILES CCc1oc2cc(S(=O)(=O)Nc3ccc(S(=O)(=O)Nc4nccs4)cc3)ccc2c1C(=O)c1cc(Br)c(O)c(Br)c1
REMARK SMILES IDX 8 1 9 2 10 3 7 4 3 5 4 6 30 7 5 8 29 9 6 10 28 11 27 12 2 13
REMARK SMILES IDX 1 14 31 15 32 16 33 17 34 18 41 19 35 20 39 21 37 22 36 23
REMARK SMILES IDX 40 24 38 25 11 27 12 29 13 30 26 31 14 32 25 33 15 34 16 35
REMARK SMILES IDX 17 36 18 37 19 38 20 40 21 41 24 42 22 43 23 44
REMARK H PARENT 38 26 11 28 19 39
ROOT
ATOM      1  S   UNL     1     125.681   1.572  -8.072  1.00  0.00     0.262 S 
ATOM      2  O   UNL     1     124.815   2.480  -8.790  1.00  0.00    -0.201 OA
ATOM      3  O   UNL     1     125.399   0.154  -8.003  1.00  0.00    -0.201 OA
ENDROOT
BRANCH   1   4
ATOM      4  C   UNL     1     127.335   1.756  -8.709  1.00  0.00     0.091 A 
ATOM      5  C   UNL     1     130.896   0.875 -11.355  1.00  0.00     0.116 A 
ATOM      6  O   UNL     1     129.728   0.257 -11.025  1.00  0.00    -0.460 OA
ATOM      7  C   UNL     1     131.003   2.092 -10.699  1.00  0.00     0.072 A 
ATOM      8  C   UNL     1     129.085   1.053 -10.134  1.00  0.00     0.136 A 
ATOM      9  C   UNL     1     129.840   2.188  -9.864  1.00  0.00     0.032 A 
ATOM     10  C   UNL     1     127.838   0.782  -9.580  1.00  0.00     0.070 A 
ATOM     11  C   UNL     1     129.340   3.110  -8.919  1.00  0.00     0.014 A 
ATOM     12  C   UNL     1     128.080   2.885  -8.350  1.00  0.00     0.023 A 
BRANCH   5  13
ATOM     13  C   UNL     1     131.747   0.162 -12.345  1.00  0.00     0.073 C 
ATOM     14  C   UNL     1     131.158   0.241 -13.745  1.00  0.00     0.012 C 
ENDBRANCH   5  13
BRANCH   7  15
ATOM     15  C   UNL     1     132.101   3.027 -10.880  1.00  0.00     0.197 C 
ATOM     16  O   UNL     1     133.168   2.920 -10.283  1.00  0.00    -0.288 OA
BRANCH  15  17
ATOM     17  C   UNL     1     131.934   4.153 -11.838  1.00  0.00     0.025 A 
ATOM     18  C   UNL     1     132.622   5.362 -11.671  1.00  0.00     0.031 A 
ATOM     19  C   UNL     1     131.043   3.996 -12.907  1.00  0.00     0.031 A 
ATOM     20  C   UNL     1     132.457   6.391 -12.602  1.00  0.00     0.061 A 
ATOM     21  C   UNL     1     130.877   5.033 -13.825  1.00  0.00     0.061 A 
ATOM     22  C   UNL     1     131.587   6.228 -13.683  1.00  0.00     0.143 A 
ATOM     23  Br  UNL     1     133.455   7.985 -12.356  1.00  0.00    -0.047 Br
ATOM     24  Br  UNL     1     129.682   4.782 -15.276  1.00  0.00    -0.047 Br
BRANCH  22  25
ATOM     25  O   UNL     1     131.443   7.245 -14.588  1.00  0.00    -0.506 OA
ATOM     26  H   UNL     1     132.224   7.247 -15.172  1.00  0.00     0.293 HD
ENDBRANCH  22  25
ENDBRANCH  15  17
ENDBRANCH   7  15
ENDBRANCH   1   4
BRANCH   1  27
ATOM     27  N   UNL     1     125.836   2.100  -6.470  1.00  0.00    -0.280 N 
ATOM     28  H   UNL     1     125.191   2.859  -6.260  1.00  0.00     0.180 HD
BRANCH  27  29
ATOM     29  C   UNL     1     126.076   1.133  -5.453  1.00  0.00     0.049 A 
ATOM     30  C   UNL     1     125.046   0.698  -4.619  1.00  0.00     0.028 A 
ATOM     31  C   UNL     1     127.386   0.693  -5.242  1.00  0.00     0.028 A 
ATOM     32  C   UNL     1     125.325  -0.158  -3.552  1.00  0.00     0.024 A 
ATOM     33  C   UNL     1     127.671  -0.165  -4.177  1.00  0.00     0.024 A 
ATOM     34  C   UNL     1     126.638  -0.587  -3.337  1.00  0.00     0.088 A 
BRANCH  34  35
ATOM     35  S   UNL     1     127.005  -1.601  -1.925  1.00  0.00     0.263 S 
ATOM     36  O   UNL     1     127.363  -0.710  -0.837  1.00  0.00    -0.201 OA
ATOM     37  O   UNL     1     125.940  -2.565  -1.754  1.00  0.00    -0.201 OA
BRANCH  35  38
ATOM     38  N   UNL     1     128.441  -2.343  -2.381  1.00  0.00    -0.255 N 
ATOM     39  H   UNL     1     129.205  -1.673  -2.345  1.00  0.00     0.182 HD
BRANCH  38  40
ATOM     40  C   UNL     1     128.686  -3.570  -1.665  1.00  0.00     0.196 A 
ATOM     41  N   UNL     1     129.027  -3.555  -0.401  1.00  0.00    -0.228 NA
ATOM     42  S   UNL     1     128.443  -5.102  -2.375  1.00  0.00    -0.105 S 
ATOM     43  C   UNL     1     129.172  -4.855   0.041  1.00  0.00     0.125 A 
ATOM     44  C   UNL     1     128.901  -5.834  -0.891  1.00  0.00     0.089 A 
ENDBRANCH  38  40
ENDBRANCH  35  38
ENDBRANCH  34  35
ENDBRANCH  27  29
ENDBRANCH   1  27
TORSDOF 10
ENDMDL
MODEL 2
REMARK VINA RESULT:    -7.051      2.830      4.167
REMARK INTER + INTRA:         -12.754
REMARK INTER:                 -11.211
REMARK INTRA:                  -1.542
REMARK UNBOUND:                -1.787
REMARK SMILES CCc1oc2cc(S(=O)(=O)Nc3ccc(S(=O)(=O)Nc4nccs4)cc3)ccc2c1C(=O)c1cc(Br)c(O)c(Br)c1
REMARK SMILES IDX 8 1 9 2 10 3 7 4 3 5 4 6 30 7 5 8 29 9 6 10 28 11 27 12 2 13
REMARK SMILES IDX 1 14 31 15 32 16 33 17 34 18 41 19 35 20 39 21 37 22 36 23
REMARK SMILES IDX 40 24 38 25 11 27 12 29 13 30 26 31 14 32 25 33 15 34 16 35
REMARK SMILES IDX 17 36 18 37 19 38 20 40 21 41 24 42 22 43 23 44
REMARK H PARENT 38 26 11 28 19 39
ROOT
ATOM      1  S   UNL     1     125.528   0.992  -7.148  1.00  0.00     0.262 S 
ATOM      2  O   UNL     1     124.473   1.859  -7.621  1.00  0.00    -0.201 OA
ATOM      3  O   UNL     1     125.320  -0.430  -6.979  1.00  0.00    -0.201 OA
ENDROOT
BRANCH   1   4
ATOM      4  C   UNL     1     126.944   1.201  -8.210  1.00  0.00     0.091 A 
ATOM      5  C   UNL     1     130.460   3.343 -10.082  1.00  0.00     0.116 A 
ATOM      6  O   UNL     1     129.361   3.687  -9.356  1.00  0.00    -0.460 OA
ATOM      7  C   UNL     1     130.493   1.973 -10.291  1.00  0.00     0.072 A 
ATOM      8  C   UNL     1     128.661   2.551  -9.114  1.00  0.00     0.136 A 
ATOM      9  C   UNL     1     129.292   1.459  -9.699  1.00  0.00     0.032 A 
ATOM     10  C   UNL     1     127.486   2.481  -8.372  1.00  0.00     0.070 A 
ATOM     11  C   UNL     1     128.675   0.194  -9.584  1.00  0.00     0.014 A 
ATOM     12  C   UNL     1     127.499   0.077  -8.831  1.00  0.00     0.023 A 
BRANCH   5  13
ATOM     13  C   UNL     1     131.376   4.460 -10.437  1.00  0.00     0.073 C 
ATOM     14  C   UNL     1     131.213   4.873 -11.892  1.00  0.00     0.012 C 
ENDBRANCH   5  13
BRANCH   7  15
ATOM     15  C   UNL     1     131.567   1.274 -10.978  1.00  0.00     0.197 C 
ATOM     16  O   UNL     1     131.534   1.027 -12.180  1.00  0.00    -0.288 OA
BRANCH  15  17
ATOM     17  C   UNL     1     132.762   0.853 -10.200  1.00  0.00     0.025 A 
ATOM     18  C   UNL     1     133.641   1.793  -9.645  1.00  0.00     0.031 A 
ATOM     19  C   UNL     1     133.019  -0.516 -10.055  1.00  0.00     0.031 A 
ATOM     20  C   UNL     1     134.743   1.361  -8.903  1.00  0.00     0.061 A 
ATOM     21  C   UNL     1     134.128  -0.938  -9.322  1.00  0.00     0.061 A 
ATOM     22  C   UNL     1     134.988  -0.004  -8.736  1.00  0.00     0.143 A 
ATOM     23  Br  UNL     1     135.868   2.678  -8.129  1.00  0.00    -0.047 Br
ATOM     24  Br  UNL     1     134.436  -2.798  -9.122  1.00  0.00    -0.047 Br
BRANCH  22  25
ATOM     25  O   UNL     1     136.070  -0.408  -8.001  1.00  0.00    -0.506 OA
ATOM     26  H   UNL     1     136.855  -0.391  -8.579  1.00  0.00     0.293 HD
ENDBRANCH  22  25
ENDBRANCH  15  17
ENDBRANCH   7  15
ENDBRANCH   1   4
BRANCH   1  27
ATOM     27  N   UNL     1     126.092   1.565  -5.656  1.00  0.00    -0.280 N 
ATOM     28  H   UNL     1     125.584   2.394  -5.355  1.00  0.00     0.180 HD
BRANCH  27  29
ATOM     29  C   UNL     1     126.470   0.620  -4.661  1.00  0.00     0.049 A 
ATOM     30  C   UNL     1     127.664  -0.094  -4.768  1.00  0.00     0.028 A 
ATOM     31  C   UNL     1     125.579   0.349  -3.619  1.00  0.00     0.028 A 
ATOM     32  C   UNL     1     127.960  -1.102  -3.848  1.00  0.00     0.024 A 
ATOM     33  C   UNL     1     125.870  -0.656  -2.695  1.00  0.00     0.024 A 
ATOM     34  C   UNL     1     127.060  -1.378  -2.814  1.00  0.00     0.088 A 
BRANCH  34  35
ATOM     35  S   UNL     1     127.395  -2.722  -1.701  1.00  0.00     0.263 S 
ATOM     36  O   UNL     1     128.184  -2.188  -0.606  1.00  0.00    -0.201 OA
ATOM     37  O   UNL     1     126.161  -3.424  -1.432  1.00  0.00    -0.201 OA
BRANCH  35  38
ATOM     38  N   UNL     1     128.460  -3.667  -2.594  1.00  0.00    -0.255 N 
ATOM     39  H   UNL     1     128.987  -3.083  -3.237  1.00  0.00     0.182 HD
BRANCH  38  40
ATOM     40  C   UNL     1     129.268  -4.528  -1.766  1.00  0.00     0.196 A 
ATOM     41  N   UNL     1     130.572  -4.414  -1.749  1.00  0.00    -0.228 NA
ATOM     42  S   UNL     1     128.583  -5.660  -0.690  1.00  0.00    -0.105 S 
ATOM     43  C   UNL     1     131.092  -5.334  -0.860  1.00  0.00     0.125 A 
ATOM     44  C   UNL     1     130.164  -6.104  -0.191  1.00  0.00     0.089 A 
ENDBRANCH  38  40
ENDBRANCH  35  38
ENDBRANCH  34  35
ENDBRANCH  27  29
ENDBRANCH   1  27
TORSDOF 10
ENDMDL
MODEL 3
REMARK VINA RESULT:    -7.008      3.434      6.801
REMARK INTER + INTRA:         -12.687
REMARK INTER:                 -11.131
REMARK INTRA:                  -1.557
REMARK UNBOUND:                -1.787
REMARK SMILES CCc1oc2cc(S(=O)(=O)Nc3ccc(S(=O)(=O)Nc4nccs4)cc3)ccc2c1C(=O)c1cc(Br)c(O)c(Br)c1
REMARK SMILES IDX 8 1 9 2 10 3 7 4 3 5 4 6 30 7 5 8 29 9 6 10 28 11 27 12 2 13
REMARK SMILES IDX 1 14 31 15 32 16 33 17 34 18 41 19 35 20 39 21 37 22 36 23
REMARK SMILES IDX 40 24 38 25 11 27 12 29 13 30 26 31 14 32 25 33 15 34 16 35
REMARK SMILES IDX 17 36 18 37 19 38 20 40 21 41 24 42 22 43 23 44
REMARK H PARENT 38 26 11 28 19 39
ROOT
ATOM      1  S   UNL     1     126.807  -1.898  -1.972  1.00  0.00     0.262 S 
ATOM      2  O   UNL     1     127.468  -1.153  -0.925  1.00  0.00    -0.201 OA
ATOM      3  O   UNL     1     125.422  -2.304  -1.853  1.00  0.00    -0.201 OA
ENDROOT
BRANCH   1   4
ATOM      4  C   UNL     1     126.965  -0.985  -3.495  1.00  0.00     0.091 A 
ATOM      5  C   UNL     1     125.585   1.449  -7.049  1.00  0.00     0.116 A 
ATOM      6  O   UNL     1     125.005   0.668  -6.095  1.00  0.00    -0.460 OA
ATOM      7  C   UNL     1     126.959   1.499  -6.864  1.00  0.00     0.072 A 
ATOM      8  C   UNL     1     125.998   0.186  -5.306  1.00  0.00     0.136 A 
ATOM      9  C   UNL     1     127.235   0.636  -5.752  1.00  0.00     0.032 A 
ATOM     10  C   UNL     1     125.807  -0.631  -4.195  1.00  0.00     0.070 A 
ATOM     11  C   UNL     1     128.389   0.193  -5.071  1.00  0.00     0.014 A 
ATOM     12  C   UNL     1     128.241  -0.617  -3.936  1.00  0.00     0.023 A 
BRANCH   5  13
ATOM     13  C   UNL     1     124.652   2.091  -8.013  1.00  0.00     0.073 C 
ATOM     14  C   UNL     1     124.327   1.165  -9.175  1.00  0.00     0.012 C 
ENDBRANCH   5  13
BRANCH   7  15
ATOM     15  C   UNL     1     127.866   2.295  -7.674  1.00  0.00     0.197 C 
ATOM     16  O   UNL     1     128.196   3.438  -7.369  1.00  0.00    -0.288 OA
BRANCH  15  17
ATOM     17  C   UNL     1     128.431   1.701  -8.915  1.00  0.00     0.025 A 
ATOM     18  C   UNL     1     127.969   0.476  -9.414  1.00  0.00     0.031 A 
ATOM     19  C   UNL     1     129.467   2.378  -9.569  1.00  0.00     0.031 A 
ATOM     20  C   UNL     1     128.509  -0.042 -10.594  1.00  0.00     0.061 A 
ATOM     21  C   UNL     1     130.008   1.848 -10.740  1.00  0.00     0.061 A 
ATOM     22  C   UNL     1     129.527   0.643 -11.262  1.00  0.00     0.143 A 
ATOM     23  Br  UNL     1     127.808  -1.676 -11.253  1.00  0.00    -0.047 Br
ATOM     24  Br  UNL     1     131.395   2.799 -11.617  1.00  0.00    -0.047 Br
BRANCH  22  25
ATOM     25  O   UNL     1     130.039   0.123 -12.420  1.00  0.00    -0.506 OA
ATOM     26  H   UNL     1     129.448  -0.592 -12.721  1.00  0.00     0.293 HD
ENDBRANCH  22  25
ENDBRANCH  15  17
ENDBRANCH   7  15
ENDBRANCH   1   4
BRANCH   1  27
ATOM     27  N   UNL     1     127.686  -3.312  -2.290  1.00  0.00    -0.280 N 
ATOM     28  H   UNL     1     128.309  -3.195  -3.086  1.00  0.00     0.180 HD
BRANCH  27  29
ATOM     29  C   UNL     1     128.149  -4.088  -1.191  1.00  0.00     0.049 A 
ATOM     30  C   UNL     1     129.350  -3.780  -0.551  1.00  0.00     0.028 A 
ATOM     31  C   UNL     1     127.427  -5.226  -0.820  1.00  0.00     0.028 A 
ATOM     32  C   UNL     1     129.848  -4.623   0.444  1.00  0.00     0.024 A 
ATOM     33  C   UNL     1     127.919  -6.072   0.176  1.00  0.00     0.024 A 
ATOM     34  C   UNL     1     129.128  -5.766   0.804  1.00  0.00     0.088 A 
BRANCH  34  35
ATOM     35  S   UNL     1     129.810  -6.884   2.005  1.00  0.00     0.263 S 
ATOM     36  O   UNL     1     128.968  -6.815   3.184  1.00  0.00    -0.201 OA
ATOM     37  O   UNL     1     130.063  -8.157   1.366  1.00  0.00    -0.201 OA
BRANCH  35  38
ATOM     38  N   UNL     1     131.240  -6.116   2.436  1.00  0.00    -0.255 N 
ATOM     39  H   UNL     1     131.199  -5.826   3.409  1.00  0.00     0.182 HD
BRANCH  38  40
ATOM     40  C   UNL     1     132.411  -6.883   2.088  1.00  0.00     0.196 A 
ATOM     41  N   UNL     1     132.995  -6.729   0.927  1.00  0.00    -0.228 NA
ATOM     42  S   UNL     1     133.165  -7.943   3.192  1.00  0.00    -0.105 S 
ATOM     43  C   UNL     1     134.098  -7.558   0.866  1.00  0.00     0.125 A 
ATOM     44  C   UNL     1     134.349  -8.299   2.001  1.00  0.00     0.089 A 
ENDBRANCH  38  40
ENDBRANCH  35  38
ENDBRANCH  34  35
ENDBRANCH  27  29
ENDBRANCH   1  27
TORSDOF 10
ENDMDL
MODEL 4
REMARK VINA RESULT:    -7.004      6.641     12.159
REMARK INTER + INTRA:         -12.681
REMARK INTER:                 -10.592
REMARK INTRA:                  -2.089
REMARK UNBOUND:                -1.787
REMARK SMILES CCc1oc2cc(S(=O)(=O)Nc3ccc(S(=O)(=O)Nc4nccs4)cc3)ccc2c1C(=O)c1cc(Br)c(O)c(Br)c1
REMARK SMILES IDX 8 1 9 2 10 3 7 4 3 5 4 6 30 7 5 8 29 9 6 10 28 11 27 12 2 13
REMARK SMILES IDX 1 14 31 15 32 16 33 17 34 18 41 19 35 20 39 21 37 22 36 23
REMARK SMILES IDX 40 24 38 25 11 27 12 29 13 30 26 31 14 32 25 33 15 34 16 35
REMARK SMILES IDX 17 36 18 37 19 38 20 40 21 41 24 42 22 43 23 44
REMARK H PARENT 38 26 11 28 19 39
ROOT
ATOM      1  S   UNL     1     125.335  -1.607  -2.465  1.00  0.00     0.262 S 
ATOM      2  O   UNL     1     124.799  -2.026  -3.740  1.00  0.00    -0.201 OA
ATOM      3  O   UNL     1     124.496  -1.500  -1.291  1.00  0.00    -0.201 OA
ENDROOT
BRANCH   1   4
ATOM      4  C   UNL     1     126.698  -2.678  -2.050  1.00  0.00     0.091 A 
ATOM      5  C   UNL     1     129.551  -6.155  -2.529  1.00  0.00     0.116 A 
ATOM      6  O   UNL     1     128.350  -5.777  -3.050  1.00  0.00    -0.460 OA
ATOM      7  C   UNL     1     130.000  -5.213  -1.615  1.00  0.00     0.072 A 
ATOM      8  C   UNL     1     128.001  -4.607  -2.459  1.00  0.00     0.136 A 
ATOM      9  C   UNL     1     128.965  -4.224  -1.534  1.00  0.00     0.032 A 
ATOM     10  C   UNL     1     126.849  -3.882  -2.748  1.00  0.00     0.070 A 
ATOM     11  C   UNL     1     128.741  -3.045  -0.790  1.00  0.00     0.014 A 
ATOM     12  C   UNL     1     127.602  -2.275  -1.061  1.00  0.00     0.023 A 
BRANCH   5  13
ATOM     13  C   UNL     1     130.120  -7.420  -3.067  1.00  0.00     0.073 C 
ATOM     14  C   UNL     1     129.959  -8.566  -2.081  1.00  0.00     0.012 C 
ENDBRANCH   5  13
BRANCH   7  15
ATOM     15  C   UNL     1     131.278  -5.285  -0.926  1.00  0.00     0.197 C 
ATOM     16  O   UNL     1     132.293  -4.742  -1.354  1.00  0.00    -0.288 OA
BRANCH  15  17
ATOM     17  C   UNL     1     131.361  -6.032   0.357  1.00  0.00     0.025 A 
ATOM     18  C   UNL     1     130.242  -6.188   1.186  1.00  0.00     0.031 A 
ATOM     19  C   UNL     1     132.600  -6.557   0.746  1.00  0.00     0.031 A 
ATOM     20  C   UNL     1     130.353  -6.913   2.374  1.00  0.00     0.061 A 
ATOM     21  C   UNL     1     132.703  -7.270   1.941  1.00  0.00     0.061 A 
ATOM     22  C   UNL     1     131.581  -7.459   2.754  1.00  0.00     0.143 A 
ATOM     23  Br  UNL     1     128.793  -7.139   3.429  1.00  0.00    -0.047 Br
ATOM     24  Br  UNL     1     134.387  -7.991   2.431  1.00  0.00    -0.047 Br
BRANCH  22  25
ATOM     25  O   UNL     1     131.668  -8.172   3.920  1.00  0.00    -0.506 OA
ATOM     26  H   UNL     1     132.043  -7.589   4.606  1.00  0.00     0.293 HD
ENDBRANCH  22  25
ENDBRANCH  15  17
ENDBRANCH   7  15
ENDBRANCH   1   4
BRANCH   1  27
ATOM     27  N   UNL     1     126.087  -0.098  -2.646  1.00  0.00    -0.280 N 
ATOM     28  H   UNL     1     126.536   0.203  -1.783  1.00  0.00     0.180 HD
BRANCH  27  29
ATOM     29  C   UNL     1     126.742   0.194  -3.875  1.00  0.00     0.049 A 
ATOM     30  C   UNL     1     126.063   0.824  -4.918  1.00  0.00     0.028 A 
ATOM     31  C   UNL     1     128.057  -0.246  -4.056  1.00  0.00     0.028 A 
ATOM     32  C   UNL     1     126.686   0.994  -6.156  1.00  0.00     0.024 A 
ATOM     33  C   UNL     1     128.685  -0.078  -5.291  1.00  0.00     0.024 A 
ATOM     34  C   UNL     1     127.996   0.542  -6.336  1.00  0.00     0.088 A 
BRANCH  34  35
ATOM     35  S   UNL     1     128.752   0.676  -7.939  1.00  0.00     0.263 S 
ATOM     36  O   UNL     1     128.387   1.972  -8.480  1.00  0.00    -0.201 OA
ATOM     37  O   UNL     1     130.144   0.299  -7.832  1.00  0.00    -0.201 OA
BRANCH  35  38
ATOM     38  N   UNL     1     127.878  -0.442  -8.839  1.00  0.00    -0.255 N 
ATOM     39  H   UNL     1     127.401   0.026  -9.605  1.00  0.00     0.182 HD
BRANCH  38  40
ATOM     40  C   UNL     1     128.671  -1.580  -9.234  1.00  0.00     0.196 A 
ATOM     41  N   UNL     1     128.698  -2.666  -8.504  1.00  0.00    -0.228 NA
ATOM     42  S   UNL     1     129.525  -1.627 -10.709  1.00  0.00    -0.105 S 
ATOM     43  C   UNL     1     129.506  -3.602  -9.120  1.00  0.00     0.125 A 
ATOM     44  C   UNL     1     130.048  -3.216 -10.327  1.00  0.00     0.089 A 
ENDBRANCH  38  40
ENDBRANCH  35  38
ENDBRANCH  34  35
ENDBRANCH  27  29
ENDBRANCH   1  27
TORSDOF 10
ENDMDL
MODEL 5
REMARK VINA RESULT:    -7.003      5.931      9.975
REMARK INTER + INTRA:         -12.679
REMARK INTER:                 -10.067
REMARK INTRA:                  -2.612
REMARK UNBOUND:                -1.787
REMARK SMILES CCc1oc2cc(S(=O)(=O)Nc3ccc(S(=O)(=O)Nc4nccs4)cc3)ccc2c1C(=O)c1cc(Br)c(O)c(Br)c1
REMARK SMILES IDX 8 1 9 2 10 3 7 4 3 5 4 6 30 7 5 8 29 9 6 10 28 11 27 12 2 13
REMARK SMILES IDX 1 14 31 15 32 16 33 17 34 18 41 19 35 20 39 21 37 22 36 23
REMARK SMILES IDX 40 24 38 25 11 27 12 29 13 30 26 31 14 32 25 33 15 34 16 35
REMARK SMILES IDX 17 36 18 37 19 38 20 40 21 41 24 42 22 43 23 44
REMARK H PARENT 38 26 11 28 19 39
ROOT
ATOM      1  S   UNL     1     125.070   1.533  -8.040  1.00  0.00     0.262 S 
ATOM      2  O   UNL     1     123.723   2.055  -8.082  1.00  0.00    -0.201 OA
ATOM      3  O   UNL     1     126.203   2.333  -8.452  1.00  0.00    -0.201 OA
ENDROOT
BRANCH   1   4
ATOM      4  C   UNL     1     125.396   0.959  -6.384  1.00  0.00     0.091 A 
ATOM      5  C   UNL     1     124.582  -1.199  -2.493  1.00  0.00     0.116 A 
ATOM      6  O   UNL     1     123.858  -0.789  -3.571  1.00  0.00    -0.460 OA
ATOM      7  C   UNL     1     125.917  -0.856  -2.649  1.00  0.00     0.072 A 
ATOM      8  C   UNL     1     124.709  -0.156  -4.417  1.00  0.00     0.136 A 
ATOM      9  C   UNL     1     125.993  -0.134  -3.885  1.00  0.00     0.032 A 
ATOM     10  C   UNL     1     124.354   0.381  -5.650  1.00  0.00     0.070 A 
ATOM     11  C   UNL     1     127.004   0.529  -4.616  1.00  0.00     0.014 A 
ATOM     12  C   UNL     1     126.693   1.069  -5.871  1.00  0.00     0.023 A 
BRANCH   5  13
ATOM     13  C   UNL     1     123.825  -1.937  -1.448  1.00  0.00     0.073 C 
ATOM     14  C   UNL     1     123.963  -3.442  -1.618  1.00  0.00     0.012 C 
ENDBRANCH   5  13
BRANCH   7  15
ATOM     15  C   UNL     1     126.968  -1.204  -1.705  1.00  0.00     0.197 C 
ATOM     16  O   UNL     1     127.345  -0.438  -0.823  1.00  0.00    -0.288 OA
BRANCH  15  17
ATOM     17  C   UNL     1     127.603  -2.545  -1.800  1.00  0.00     0.025 A 
ATOM     18  C   UNL     1     127.402  -3.372  -2.913  1.00  0.00     0.031 A 
ATOM     19  C   UNL     1     128.391  -2.989  -0.731  1.00  0.00     0.031 A 
ATOM     20  C   UNL     1     128.031  -4.618  -2.977  1.00  0.00     0.061 A 
ATOM     21  C   UNL     1     129.007  -4.239  -0.798  1.00  0.00     0.061 A 
ATOM     22  C   UNL     1     128.838  -5.053  -1.922  1.00  0.00     0.143 A 
ATOM     23  Br  UNL     1     127.767  -5.672  -4.531  1.00  0.00    -0.047 Br
ATOM     24  Br  UNL     1     130.087  -4.804   0.654  1.00  0.00    -0.047 Br
BRANCH  22  25
ATOM     25  O   UNL     1     129.451  -6.275  -2.005  1.00  0.00    -0.506 OA
ATOM     26  H   UNL     1     129.340  -6.730  -1.150  1.00  0.00     0.293 HD
ENDBRANCH  22  25
ENDBRANCH  15  17
ENDBRANCH   7  15
ENDBRANCH   1   4
BRANCH   1  27
ATOM     27  N   UNL     1     125.143   0.106  -8.952  1.00  0.00    -0.280 N 
ATOM     28  H   UNL     1     124.870   0.265  -9.920  1.00  0.00     0.180 HD
BRANCH  27  29
ATOM     29  C   UNL     1     126.203  -0.809  -8.702  1.00  0.00     0.049 A 
ATOM     30  C   UNL     1     126.000  -1.945  -7.918  1.00  0.00     0.028 A 
ATOM     31  C   UNL     1     127.482  -0.503  -9.178  1.00  0.00     0.028 A 
ATOM     32  C   UNL     1     127.079  -2.766  -7.584  1.00  0.00     0.024 A 
ATOM     33  C   UNL     1     128.564  -1.321  -8.849  1.00  0.00     0.024 A 
ATOM     34  C   UNL     1     128.357  -2.450  -8.053  1.00  0.00     0.088 A 
BRANCH  34  35
ATOM     35  S   UNL     1     129.741  -3.444  -7.549  1.00  0.00     0.263 S 
ATOM     36  O   UNL     1     130.881  -3.031  -8.347  1.00  0.00    -0.201 OA
ATOM     37  O   UNL     1     129.823  -3.433  -6.106  1.00  0.00    -0.201 OA
BRANCH  35  38
ATOM     38  N   UNL     1     129.320  -4.963  -8.131  1.00  0.00    -0.255 N 
ATOM     39  H   UNL     1     128.943  -4.882  -9.072  1.00  0.00     0.182 HD
BRANCH  38  40
ATOM     40  C   UNL     1     130.383  -5.927  -7.993  1.00  0.00     0.196 A 
ATOM     41  N   UNL     1     130.504  -6.643  -6.904  1.00  0.00    -0.228 NA
ATOM     42  S   UNL     1     131.471  -6.270  -9.261  1.00  0.00    -0.105 S 
ATOM     43  C   UNL     1     131.580  -7.498  -7.045  1.00  0.00     0.125 A 
ATOM     44  C   UNL     1     132.232  -7.437  -8.258  1.00  0.00     0.089 A 
ENDBRANCH  38  40
ENDBRANCH  35  38
ENDBRANCH  34  35
ENDBRANCH  27  29
ENDBRANCH   1  27
TORSDOF 10
ENDMDL
