REMARK SMILES CCc1oc2cc(S(=O)(=O)Nc3ccc(S(=O)(=O)Nc4nccs4)cc3)ccc2c1C(=O)c1cc(Br)c(O)c(Br)c1
REMARK SMILES IDX 8 1 9 2 10 3 7 4 3 5 4 6 30 7 5 8 29 9 6 10 28 11 27 12 2 13
REMARK SMILES IDX 1 14 31 15 32 16 33 17 34 18 41 19 35 20 39 21 37 22 36 23
REMARK SMILES IDX 40 24 38 25 11 27 12 29 13 30 26 31 14 32 25 33 15 34 16 35
REMARK SMILES IDX 17 36 18 37 19 38 20 40 21 41 24 42 22 43 23 44
REMARK H PARENT 38 26 11 28 19 39
ROOT
ATOM      1  S   UNL     1       0.859  -2.544   3.739  1.00  0.00     0.262 S 
ATOM      2  O   UNL     1       1.742  -1.707   4.519  1.00  0.00    -0.201 OA
ATOM      3  O   UNL     1       0.174  -3.675   4.328  1.00  0.00    -0.201 OA
ENDROOT
BRANCH   1   4
ATOM      4  C   UNL     1      -0.378  -1.505   2.986  1.00  0.00     0.091 A 
ATOM      5  C   UNL     1      -2.146   2.297   1.290  1.00  0.00     0.116 A 
ATOM      6  O   UNL     1      -1.077   1.958   2.063  1.00  0.00    -0.460 OA
ATOM      7  C   UNL     1      -2.869   1.166   0.941  1.00  0.00     0.072 A 
ATOM      8  C   UNL     1      -1.115   0.614   2.243  1.00  0.00     0.136 A 
ATOM      9  C   UNL     1      -2.222   0.070   1.602  1.00  0.00     0.032 A 
ATOM     10  C   UNL     1      -0.172  -0.121   2.954  1.00  0.00     0.070 A 
ATOM     11  C   UNL     1      -2.444  -1.319   1.723  1.00  0.00     0.014 A 
ATOM     12  C   UNL     1      -1.509  -2.100   2.416  1.00  0.00     0.023 A 
BRANCH   5  13
ATOM     13  C   UNL     1      -2.274   3.742   0.961  1.00  0.00     0.073 C 
ATOM     14  C   UNL     1      -1.745   4.045  -0.432  1.00  0.00     0.012 C 
ENDBRANCH   5  13
BRANCH   7  15
ATOM     15  C   UNL     1      -4.033   1.174   0.070  1.00  0.00     0.197 C 
ATOM     16  O   UNL     1      -4.871   2.071   0.093  1.00  0.00    -0.288 OA
BRANCH  15  17
ATOM     17  C   UNL     1      -4.212   0.061  -0.900  1.00  0.00     0.025 A 
ATOM     18  C   UNL     1      -3.117  -0.531  -1.543  1.00  0.00     0.031 A 
ATOM     19  C   UNL     1      -5.512  -0.371  -1.190  1.00  0.00     0.031 A 
ATOM     20  C   UNL     1      -3.321  -1.588  -2.433  1.00  0.00     0.061 A 
ATOM     21  C   UNL     1      -5.707  -1.420  -2.089  1.00  0.00     0.061 A 
ATOM     22  C   UNL     1      -4.615  -2.038  -2.706  1.00  0.00     0.143 A 
ATOM     23  Br  UNL     1      -1.798  -2.388  -3.232  1.00  0.00    -0.047 Br
ATOM     24  Br  UNL     1      -7.477  -2.000  -2.444  1.00  0.00    -0.047 Br
BRANCH  22  25
ATOM     25  O   UNL     1      -4.795  -3.079  -3.577  1.00  0.00    -0.506 OA
ATOM     26  H   UNL     1      -5.753  -3.240  -3.666  1.00  0.00     0.293 HD
ENDBRANCH  22  25
ENDBRANCH  15  17
ENDBRANCH   7  15
ENDBRANCH   1   4
BRANCH   1  27
ATOM     27  N   UNL     1       1.704  -3.150   2.401  1.00  0.00    -0.280 N 
ATOM     28  H   UNL     1       1.351  -4.061   2.115  1.00  0.00     0.180 HD
BRANCH  27  29
ATOM     29  C   UNL     1       2.107  -2.243   1.381  1.00  0.00     0.049 A 
ATOM     30  C   UNL     1       3.018  -1.221   1.649  1.00  0.00     0.028 A 
ATOM     31  C   UNL     1       1.502  -2.334   0.124  1.00  0.00     0.028 A 
ATOM     32  C   UNL     1       3.309  -0.269   0.670  1.00  0.00     0.024 A 
ATOM     33  C   UNL     1       1.790  -1.386  -0.860  1.00  0.00     0.024 A 
ATOM     34  C   UNL     1       2.693  -0.357  -0.582  1.00  0.00     0.088 A 
BRANCH  34  35
ATOM     35  S   UNL     1       2.994   0.908  -1.793  1.00  0.00     0.263 S 
ATOM     36  O   UNL     1       1.932   0.822  -2.778  1.00  0.00    -0.201 OA
ATOM     37  O   UNL     1       3.252   2.156  -1.110  1.00  0.00    -0.201 OA
BRANCH  35  38
ATOM     38  N   UNL     1       4.368   0.336  -2.572  1.00  0.00    -0.255 N 
ATOM     39  H   UNL     1       4.223   0.337  -3.578  1.00  0.00     0.182 HD
BRANCH  38  40
ATOM     40  C   UNL     1       5.571   1.003  -2.140  1.00  0.00     0.196 A 
ATOM     41  N   UNL     1       6.095   0.752  -0.967  1.00  0.00    -0.228 NA
ATOM     42  S   UNL     1       6.438   2.064  -3.156  1.00  0.00    -0.105 S 
ATOM     43  C   UNL     1       7.247   1.500  -0.820  1.00  0.00     0.125 A 
ATOM     44  C   UNL     1       7.593   2.278  -1.904  1.00  0.00     0.089 A 
ENDBRANCH  38  40
ENDBRANCH  35  38
ENDBRANCH  34  35
ENDBRANCH  27  29
ENDBRANCH   1  27
TORSDOF 10
